 Q-Chem 5.4 (devel), Q-Chem, Inc., Pleasanton, CA (2021)
 Q-Chem 5.4.2 for Intel X86 EM64T Linux

User input:
--------------------------------------------------------------
$rem
   MEM_TOTAL 16000
   MEM_STATIC 4000
   JOBTYPE  SP
   EXCHANGE HF
   BASIS    6-31G
$end

$molecule
   0 1
 H     0.0000 0.0000 0.0000
 H     0.7500 0.0000 0.0000
$end
--------------------------------------------------------------

    4      -1.1265450336      4.03e-07  Convergence criterion met
 Total energy in the final basis set =       -1.1265450336
 Total job time:  0.03s(wall), 0.03s(cpu)
        *  Thank you very much for using Q-Chem.  Have a nice day.  *
 Q-Chem 5.4 (devel), Q-Chem, Inc., Pleasanton, CA (2021)
 Q-Chem 5.4.2 for Intel X86 EM64T Linux

User input:
--------------------------------------------------------------
$rem
   MEM_TOTAL 16000
   MEM_STATIC 4000
   JOBTYPE  SP
   EXCHANGE HF
   BASIS    6-31G
$end

$molecule
   0 1
 H     0.0000 0.0000 0.0000
 F     0.7500 0.0000 0.0000
$end
--------------------------------------------------------------

             Standard Nuclear Orientation (Angstroms)
    I     Atom           X                Y                Z
 ----------------------------------------------------------------
    1      H       0.0000000000     0.0000000000    -0.6750000000
    2      F       0.0000000000     0.0000000000     0.0750000000
 ----------------------------------------------------------------

    7     -99.9329649525      3.24e-06  Convergence criterion met
 Total energy in the final basis set =      -99.9329649525

                    Orbital Energies (a.u.)
 --------------------------------------------------------------

 Alpha MOs
 -- Occupied --
-26.2671  -1.6713  -0.8041  -0.6476  -0.6476

          Ground-State Mulliken Net Atomic Charges

     Atom                 Charge (a.u.)
  ----------------------------------------
      1 H                     0.413304
      2 F                    -0.413304
  ----------------------------------------
  Sum of atomic charges =     0.000000

                    Cartesian Multipole Moments
 -----------------------------------------------------------------
    Charge (ESU x 10^10)
                 0.0000
    Dipole Moment (Debye)
         X      -0.0000      Y      -0.0000      Z      -2.0566
       Tot       2.0566
    Quadrupole Moments (Debye-Ang)
        XX      -5.2304     XY      -0.0000     YY      -5.2304
        XZ       0.0000     YZ       0.0000     ZZ      -3.8757

 Total job time:  0.31s(wall), 0.09s(cpu)
        *  Thank you very much for using Q-Chem.  Have a nice day.  *
